Thu Oct 27 04:55:19 CDT 2022
cpu-23-60

                                 *****************
                                 * O   R   C   A *
                                 *****************

                                            #,                                       
                                            ###                                      
                                            ####                                     
                                            #####                                    
                                            ######                                   
                                           ########,                                 
                                     ,,################,,,,,                         
                               ,,#################################,,                 
                          ,,##########################################,,             
                       ,#########################################, ''#####,          
                    ,#############################################,,   '####,        
                  ,##################################################,,,,####,       
                ,###########''''           ''''###############################       
              ,#####''   ,,,,##########,,,,          '''####'''          '####       
            ,##' ,,,,###########################,,,                        '##       
           ' ,,###''''                  '''############,,,                           
         ,,##''                                '''############,,,,        ,,,,,,###''
      ,#''                                            '''#######################'''  
     '                                                          ''''####''''         
             ,#######,   #######,   ,#######,      ##                                
            ,#'     '#,  ##    ##  ,#'     '#,    #''#        ######   ,####,        
            ##       ##  ##   ,#'  ##            #'  '#       #        #'  '#        
            ##       ##  #######   ##           ,######,      #####,   #    #        
            '#,     ,#'  ##    ##  '#,     ,#' ,#      #,         ##   #,  ,#        
             '#######'   ##     ##  '#######'  #'      '#     #####' # '####'        



                  #######################################################
                  #                        -***-                        #
                  #          Department of theory and spectroscopy      #
                  #    Directorship and core code : Frank Neese         #
                  #        Max Planck Institute fuer Kohlenforschung    #
                  #                Kaiser Wilhelm Platz 1               #
                  #                 D-45470 Muelheim/Ruhr               #
                  #                      Germany                        #
                  #                                                     #
                  #                  All rights reserved                #
                  #                        -***-                        #
                  #######################################################


                         Program Version 5.0.3 -  RELEASE  -


 With contributions from (in alphabetic order):
   Daniel Aravena         : Magnetic Suceptibility
   Michael Atanasov       : Ab Initio Ligand Field Theory (pilot matlab implementation)
   Alexander A. Auer      : GIAO ZORA, VPT2 properties, NMR spectrum
   Ute Becker             : Parallelization
   Giovanni Bistoni       : ED, misc. LED, open-shell LED, HFLD
   Martin Brehm           : Molecular dynamics
   Dmytro Bykov           : SCF Hessian
   Vijay G. Chilkuri      : MRCI spin determinant printing, contributions to CSF-ICE
   Dipayan Datta          : RHF DLPNO-CCSD density
   Achintya Kumar Dutta   : EOM-CC, STEOM-CC
   Dmitry Ganyushin       : Spin-Orbit,Spin-Spin,Magnetic field MRCI
   Miquel Garcia          : C-PCM and meta-GGA Hessian, CC/C-PCM, Gaussian charge scheme
   Yang Guo               : DLPNO-NEVPT2, F12-NEVPT2, CIM, IAO-localization
   Andreas Hansen         : Spin unrestricted coupled pair/coupled cluster methods
   Benjamin Helmich-Paris : MC-RPA, TRAH-SCF, COSX integrals
   Lee Huntington         : MR-EOM, pCC
   Robert Izsak           : Overlap fitted RIJCOSX, COSX-SCS-MP3, EOM
   Marcus Kettner         : VPT2
   Christian Kollmar      : KDIIS, OOCD, Brueckner-CCSD(T), CCSD density, CASPT2, CASPT2-K
   Simone Kossmann        : Meta GGA functionals, TD-DFT gradient, OOMP2, MP2 Hessian
   Martin Krupicka        : Initial AUTO-CI
   Lucas Lang             : DCDCAS
   Marvin Lechner         : AUTO-CI (C++ implementation), FIC-MRCC
   Dagmar Lenk            : GEPOL surface, SMD
   Dimitrios Liakos       : Extrapolation schemes; Compound Job, initial MDCI parallelization
   Dimitrios Manganas     : Further ROCIS development; embedding schemes
   Dimitrios Pantazis     : SARC Basis sets
   Anastasios Papadopoulos: AUTO-CI, single reference methods and gradients
   Taras Petrenko         : DFT Hessian,TD-DFT gradient, ASA, ECA, R-Raman, ABS, FL, XAS/XES, NRVS
   Peter Pinski           : DLPNO-MP2, DLPNO-MP2 Gradient
   Christoph Reimann      : Effective Core Potentials
   Marius Retegan         : Local ZFS, SOC
   Christoph Riplinger    : Optimizer, TS searches, QM/MM, DLPNO-CCSD(T), (RO)-DLPNO pert. Triples
   Tobias Risthaus        : Range-separated hybrids, TD-DFT gradient, RPA, STAB
   Michael Roemelt        : Original ROCIS implementation
   Masaaki Saitow         : Open-shell DLPNO-CCSD energy and density
   Barbara Sandhoefer     : DKH picture change effects
   Avijit Sen             : IP-ROCIS
   Kantharuban Sivalingam : CASSCF convergence, NEVPT2, FIC-MRCI
   Bernardo de Souza      : ESD, SOC TD-DFT
   Georgi Stoychev        : AutoAux, RI-MP2 NMR, DLPNO-MP2 response
   Willem Van den Heuvel  : Paramagnetic NMR
   Boris Wezisla          : Elementary symmetry handling
   Frank Wennmohs         : Technical directorship


 We gratefully acknowledge several colleagues who have allowed us to
 interface, adapt or use parts of their codes:
   Stefan Grimme, W. Hujo, H. Kruse, P. Pracht,  : VdW corrections, initial TS optimization,
                  C. Bannwarth, S. Ehlert          DFT functionals, gCP, sTDA/sTD-DF
   Ed Valeev, F. Pavosevic, A. Kumar             : LibInt (2-el integral package), F12 methods
   Garnet Chan, S. Sharma, J. Yang, R. Olivares  : DMRG
   Ulf Ekstrom                                   : XCFun DFT Library
   Mihaly Kallay                                 : mrcc  (arbitrary order and MRCC methods)
   Jiri Pittner, Ondrej Demel                    : Mk-CCSD
   Frank Weinhold                                : gennbo (NPA and NBO analysis)
   Christopher J. Cramer and Donald G. Truhlar   : smd solvation model
   Lars Goerigk                                  : TD-DFT with DH, B97 family of functionals
   V. Asgeirsson, H. Jonsson                     : NEB implementation
   FAccTs GmbH                                   : IRC, NEB, NEB-TS, DLPNO-Multilevel, CI-OPT
                                                   MM, QMMM, 2- and 3-layer-ONIOM, Crystal-QMMM,
                                                   LR-CPCM, SF, NACMEs, symmetry and pop. for TD-DFT,
                                                   nearIR, NL-DFT gradient (VV10), updates on ESD,
                                                   ML-optimized integration grids
   S Lehtola, MJT Oliveira, MAL Marques          : LibXC Library
   Liviu Ungur et al                             : ANISO software


 Your calculation uses the libint2 library for the computation of 2-el integrals
 For citations please refer to: http://libint.valeyev.net

 Your ORCA version has been built with support for libXC version: 5.1.0
 For citations please refer to: https://tddft.org/programs/libxc/

 This ORCA versions uses:
   CBLAS   interface :  Fast vector & matrix operations
   LAPACKE interface :  Fast linear algebra routines
   SCALAPACK package :  Parallel linear algebra routines
   Shared memory     :  Shared parallel matrices
   BLAS/LAPACK       :  OpenBLAS 0.3.15  USE64BITINT DYNAMIC_ARCH NO_AFFINITY Zen SINGLE_THREADED
        Core in use  :  Zen
   Copyright (c) 2011-2014, The OpenBLAS Project


================================================================================

----- Orbital basis set information -----
Your calculation utilizes the basis: def2-TZVP
   F. Weigend and R. Ahlrichs, Phys. Chem. Chem. Phys. 7, 3297 (2005).

----- AuxJ basis set information -----
Your calculation utilizes the auxiliary basis: def2/J
   F. Weigend, Phys. Chem. Chem. Phys. 8, 1057 (2006).

================================================================================
                                        WARNINGS
                       Please study these warnings very carefully!
================================================================================


WARNING: your system is open-shell and RHF/RKS was chosen
  ===> : WILL SWITCH to UHF/UKS

INFO   : Checking CIS options ...

INFO   : Since TDDFT/CIS Mode == RPA_AOINTS, the TAMMDANCOFF/TDA keyword is ignored. 


WARNING: CIS/ROCIS methods need fully converged wavefunctions
  ===> : Setting SCFConvForced true
         You can overwrite this default with %scf ConvForced false 


INFO   : the flag for use of the SHARK integral package has been found!

================================================================================
                                       INPUT FILE
================================================================================
NAME = TDDFT.inp
|  1> ! B3LYP def2-TZVP  TightSCF
|  2> %PAL
|  3> nprocs 8
|  4> end
|  5> %maxcore 3800
|  6> %scf
|  7> maxiter 1000
|  8> end
|  9> #%elprop
| 10> #polar 1
| 11> #end
| 12> %TDDFT 
| 13> NROOTS 10
| 14> TDA False
| 15> DoNTO True
| 16> #iroot 2
| 17> END
| 18> #%ESD
| 19> #GSHESSIAN "MV.hess"
| 20> #LASERE 19317.6, 29225.3, 33303.2, 36867.2, 8333
| 21> #END
| 22> 
| 23> 
| 24> * xyz 1 2
| 25>   C   -0.02571791116983      0.00828534518343      3.89374794042933
| 26>   C   -0.00798216123215     -1.16370321667784      1.75964300217489
| 27>   C   -0.02573547567890      1.18383756619903      1.76157633669080
| 28>   C   -0.03111310338271      1.20912070887423      3.12177345720018
| 29>   C   -0.01369155118806     -1.19120784409193      3.11989837429638
| 30>   H   0.00275548395963     -2.06703772553412      1.16730412336271
| 31>   H   -0.03037506077339      2.08807741195387      1.17048700448880
| 32>   H   -0.04525416808874      2.18020261487319      3.59187209898332
| 33>   H   -0.00964217027470     -2.16314980123416      3.58840580462891
| 34>   N   -0.01923119522844      0.01051692663114      1.06306607414248
| 35>   C   0.05530410261374      0.01350461139222     -0.40066728230581
| 36>   H   1.09524800677609      0.04135495974582     -0.73071745475833
| 37>   H   -0.46901623532095      0.88444367487090     -0.78780155079044
| 38>   H   -0.42153827138504     -0.88382942483018     -0.78842501306722
| 39>   C   -0.03534401477966      0.00719976000083      5.32137274305138
| 40>   C   -0.05039174979362     -1.19364087393148      6.09321811342492
| 41>   C   -0.03448731677646      1.20669318673904      6.09530428621601
| 42>   C   -0.04647792211354      1.17919121038618      7.45553063831469
| 43>   C   -0.06277179688273     -1.16835554168923      7.45335879429720
| 44>   H   -0.05802796265526     -2.16472972043479      5.62298065017647
| 45>   H   -0.02517386649043      2.17863951183965      5.62688386151860
| 46>   H   -0.04422460698703      2.08254728452135      8.04792146698689
| 47>   H   -0.07476349535107     -2.07259600656990      8.04434932632864
| 48>   N   -0.06582738554875      0.00498637311124      8.15190405707315
| 49>   C   -0.01054506005800      0.00170548222042      9.61649453678526
| 50>   H   1.02483829609278     -0.03073631781518      9.96015087384013
| 51>   H   -0.54380285575984     -0.86685569124208      9.99677164340116
| 52>   H   -0.48839755252296      0.90119253550835      9.99791409310898
| 53> *
| 54> 
| 55>                          ****END OF INPUT****
================================================================================

                       ****************************
                       * Single Point Calculation *
                       ****************************

---------------------------------
CARTESIAN COORDINATES (ANGSTROEM)
---------------------------------
  C     -0.025718    0.008285    3.893748
  C     -0.007982   -1.163703    1.759643
  C     -0.025735    1.183838    1.761576
  C     -0.031113    1.209121    3.121773
  C     -0.013692   -1.191208    3.119898
  H      0.002755   -2.067038    1.167304
  H     -0.030375    2.088077    1.170487
  H     -0.045254    2.180203    3.591872
  H     -0.009642   -2.163150    3.588406
  N     -0.019231    0.010517    1.063066
  C      0.055304    0.013505   -0.400667
  H      1.095248    0.041355   -0.730717
  H     -0.469016    0.884444   -0.787802
  H     -0.421538   -0.883829   -0.788425
  C     -0.035344    0.007200    5.321373
  C     -0.050392   -1.193641    6.093218
  C     -0.034487    1.206693    6.095304
  C     -0.046478    1.179191    7.455531
  C     -0.062772   -1.168356    7.453359
  H     -0.058028   -2.164730    5.622981
  H     -0.025174    2.178640    5.626884
  H     -0.044225    2.082547    8.047921
  H     -0.074763   -2.072596    8.044349
  N     -0.065827    0.004986    8.151904
  C     -0.010545    0.001705    9.616495
  H      1.024838   -0.030736    9.960151
  H     -0.543803   -0.866856    9.996772
  H     -0.488398    0.901193    9.997914

----------------------------
CARTESIAN COORDINATES (A.U.)
----------------------------
  NO LB      ZA    FRAG     MASS         X           Y           Z
   0 C     6.0000    0    12.011   -0.048600    0.015657    7.358117
   1 C     6.0000    0    12.011   -0.015084   -2.199080    3.325243
   2 C     6.0000    0    12.011   -0.048633    2.237129    3.328897
   3 C     6.0000    0    12.011   -0.058795    2.284907    5.899297
   4 C     6.0000    0    12.011   -0.025873   -2.251057    5.895753
   5 H     1.0000    0     1.008    0.005207   -3.906135    2.205885
   6 H     1.0000    0     1.008   -0.057401    3.945894    2.211900
   7 H     1.0000    0     1.008   -0.085518    4.119986    6.787655
   8 H     1.0000    0     1.008   -0.018221   -4.087761    6.781104
   9 N     7.0000    0    14.007   -0.036342    0.019874    2.008904
  10 C     6.0000    0    12.011    0.104510    0.025520   -0.757151
  11 H     1.0000    0     1.008    2.069719    0.078150   -1.380856
  12 H     1.0000    0     1.008   -0.886312    1.671356   -1.488729
  13 H     1.0000    0     1.008   -0.796592   -1.670196   -1.489907
  14 C     6.0000    0    12.011   -0.066791    0.013606   10.055937
  15 C     6.0000    0    12.011   -0.095227   -2.255654   11.514514
  16 C     6.0000    0    12.011   -0.065172    2.280320   11.518456
  17 C     6.0000    0    12.011   -0.087831    2.228348   14.088911
  18 C     6.0000    0    12.011   -0.118622   -2.207872   14.084807
  19 H     1.0000    0     1.008   -0.109657   -4.090746   10.625893
  20 H     1.0000    0     1.008   -0.047572    4.117032   10.633269
  21 H     1.0000    0     1.008   -0.083572    3.935444   15.208368
  22 H     1.0000    0     1.008   -0.141283   -3.916639   15.201617
  23 N     7.0000    0    14.007   -0.124396    0.009423   15.404866
  24 C     6.0000    0    12.011   -0.019927    0.003223   18.172541
  25 H     1.0000    0     1.008    1.936664   -0.058083   18.821957
  26 H     1.0000    0     1.008   -1.027638   -1.638120   18.891161
  27 H     1.0000    0     1.008   -0.922938    1.703007   18.893320

--------------------------------
INTERNAL COORDINATES (ANGSTROEM)
--------------------------------
 C      0   0   0     0.000000000000     0.00000000     0.00000000
 C      1   0   0     2.434805050398     0.00000000     0.00000000
 C      2   1   0     2.347608707861    61.17663467     0.00000000
 C      3   2   1     1.360442708395    91.11374174     0.00000000
 C      2   1   3     1.360545397643    29.93269457   180.02189690
 H      2   1   3     1.080274909117   152.02881847   179.83654851
 H      3   2   1     1.080304504778   146.78080054   180.02545305
 H      4   3   2     1.078977650777   116.89701120   180.29817014
 H      5   2   1     1.078974873580   116.89247071   179.94420504
 N      2   1   3     1.365334721739    91.89961413   359.77871835
 C     10   2   1     1.465632892529   120.72116996   176.76063465
 H     11  10   2     1.091417464605   110.51925071   270.76071712
 H     11  10   2     1.087804950761   109.42328203   150.29882047
 H     11  10   2     1.087631867853   109.39480265    31.18720174
 C      1   2   3     1.427657668150   151.18282483   179.69225941
 C     15   1   2     1.427581849912   122.77657670   359.36678406
 C     15   1   2     1.427499649115   122.78603802   179.54661380
 C     17  15   1     1.360557188163   121.67070566   179.86715066
 C     16  15   1     1.360432021586   121.66906450   180.16946574
 H     16  15   1     1.078978744643   121.43313618   359.82326339
 H     17  15   1     1.078973629662   121.43700254   359.92304087
 H     18  17  15     1.080270414295   122.09452408   179.89414324
 H     19  16  15     1.080307561813   122.10580708   179.96428938
 N     18  17  15     1.365308514574   121.83222307   359.70960146
 C     24  18  17     1.465637121876   120.73544883   176.91095875
 H     25  24  18     1.091407734342   110.51782932   270.45627008
 H     25  24  18     1.087829520899   109.42799140   149.99069359
 H     25  24  18     1.087612450064   109.39145213    30.87806059

---------------------------
INTERNAL COORDINATES (A.U.)
---------------------------
 C      0   0   0     0.000000000000     0.00000000     0.00000000
 C      1   0   0     4.601114734740     0.00000000     0.00000000
 C      2   1   0     4.436337527467    61.17663467     0.00000000
 C      3   2   1     2.570864139757    91.11374174     0.00000000
 C      2   1   3     2.571058194313    29.93269457   180.02189690
 H      2   1   3     2.041423727577   152.02881847   179.83654851
 H      3   2   1     2.041479655272   146.78080054   180.02545305
 H      4   3   2     2.038972264590   116.89701120   180.29817014
 H      5   2   1     2.038967016448   116.89247071   179.94420504
 N      2   1   3     2.580108705220    91.89961413   359.77871835
 C     10   2   1     2.769644779747   120.72116996   176.76063465
 H     11  10   2     2.062480105881   110.51925071   270.76071712
 H     11  10   2     2.055653444062   109.42328203   150.29882047
 H     11  10   2     2.055326364767   109.39480265    31.18720174
 C      1   2   3     2.697882005796   151.18282483   179.69225941
 C     15   1   2     2.697738730091   122.77657670   359.36678406
 C     15   1   2     2.697583393097   122.78603802   179.54661380
 C     17  15   1     2.571080475167   121.67070566   179.86715066
 C     16  15   1     2.570843944614   121.66906450   180.16946574
 H     16  15   1     2.038974331698   121.43313618   359.82326339
 H     17  15   1     2.038964665785   121.43700254   359.92304087
 H     18  17  15     2.041415233595   122.09452408   179.89414324
 H     19  16  15     2.041485432231   122.10580708   179.96428938
 N     18  17  15     2.580059180856   121.83222307   359.70960146
 C     24  18  17     2.769652772054   120.73544883   176.91095875
 H     25  24  18     2.062461718350   110.51782932   270.45627008
 H     25  24  18     2.055699874894   109.42799140   149.99069359
 H     25  24  18     2.055289670464   109.39145213    30.87806059

---------------------
BASIS SET INFORMATION
---------------------
There are 3 groups of distinct atoms

 Group   1 Type C   : 11s6p2d1f contracted to 5s3p2d1f pattern {62111/411/11/1}
 Group   2 Type H   : 5s1p contracted to 3s1p pattern {311/1}
 Group   3 Type N   : 11s6p2d1f contracted to 5s3p2d1f pattern {62111/411/11/1}

Atom   0C    basis set group =>   1
Atom   1C    basis set group =>   1
Atom   2C    basis set group =>   1
Atom   3C    basis set group =>   1
Atom   4C    basis set group =>   1
Atom   5H    basis set group =>   2
Atom   6H    basis set group =>   2
Atom   7H    basis set group =>   2
Atom   8H    basis set group =>   2
Atom   9N    basis set group =>   3
Atom  10C    basis set group =>   1
Atom  11H    basis set group =>   2
Atom  12H    basis set group =>   2
Atom  13H    basis set group =>   2
Atom  14C    basis set group =>   1
Atom  15C    basis set group =>   1
Atom  16C    basis set group =>   1
Atom  17C    basis set group =>   1
Atom  18C    basis set group =>   1
Atom  19H    basis set group =>   2
Atom  20H    basis set group =>   2
Atom  21H    basis set group =>   2
Atom  22H    basis set group =>   2
Atom  23N    basis set group =>   3
Atom  24C    basis set group =>   1
Atom  25H    basis set group =>   2
Atom  26H    basis set group =>   2
Atom  27H    basis set group =>   2
---------------------------------
AUXILIARY/J BASIS SET INFORMATION
---------------------------------
There are 3 groups of distinct atoms

 Group   1 Type C   : 12s5p4d2f1g contracted to 6s4p3d1f1g pattern {711111/2111/211/2/1}
 Group   2 Type H   : 5s2p1d contracted to 3s1p1d pattern {311/2/1}
 Group   3 Type N   : 12s5p4d2f1g contracted to 6s4p3d1f1g pattern {711111/2111/211/2/1}

Atom   0C    basis set group =>   1
Atom   1C    basis set group =>   1
Atom   2C    basis set group =>   1
Atom   3C    basis set group =>   1
Atom   4C    basis set group =>   1
Atom   5H    basis set group =>   2
Atom   6H    basis set group =>   2
Atom   7H    basis set group =>   2
Atom   8H    basis set group =>   2
Atom   9N    basis set group =>   3
Atom  10C    basis set group =>   1
Atom  11H    basis set group =>   2
Atom  12H    basis set group =>   2
Atom  13H    basis set group =>   2
Atom  14C    basis set group =>   1
Atom  15C    basis set group =>   1
Atom  16C    basis set group =>   1
Atom  17C    basis set group =>   1
Atom  18C    basis set group =>   1
Atom  19H    basis set group =>   2
Atom  20H    basis set group =>   2
Atom  21H    basis set group =>   2
Atom  22H    basis set group =>   2
Atom  23N    basis set group =>   3
Atom  24C    basis set group =>   1
Atom  25H    basis set group =>   2
Atom  26H    basis set group =>   2
Atom  27H    basis set group =>   2


           ************************************************************
           *        Program running with 8 parallel MPI-processes     *
           *              working on a common directory               *
           ************************************************************
------------------------------------------------------------------------------
                           ORCA GTO INTEGRAL CALCULATION
                           -- RI-GTO INTEGRALS CHOSEN --
------------------------------------------------------------------------------
------------------------------------------------------------------------------
                   ___                                                        
                  /   \      - P O W E R E D   B Y -                         
                 /     \                                                     
                 |  |  |   _    _      __       _____    __    __             
                 |  |  |  | |  | |    /  \     |  _  \  |  |  /  |          
                  \  \/   | |  | |   /    \    | | | |  |  | /  /          
                 / \  \   | |__| |  /  /\  \   | |_| |  |  |/  /          
                |  |  |   |  __  | /  /__\  \  |    /   |      \           
                |  |  |   | |  | | |   __   |  |    \   |  |\   \          
                \     /   | |  | | |  |  |  |  | |\  \  |  | \   \       
                 \___/    |_|  |_| |__|  |__|  |_| \__\ |__|  \__/        
                                                                              
                      - O R C A' S   B I G   F R I E N D -                    
                                      &                                       
                       - I N T E G R A L  F E E D E R -                       
                                                                              
 v1 FN, 2020, v2 2021                                                         
------------------------------------------------------------------------------


Reading SHARK input file TDDFT.SHARKINP.tmp ... ok
----------------------
SHARK INTEGRAL PACKAGE
----------------------

Number of atoms                             ...     28
Number of basis functions                   ...    518
Number of shells                            ...    210
Maximum angular momentum                    ...      3
Integral batch strategy                     ... SHARK/LIBINT Hybrid
RI-J (if used) integral strategy            ... SPLIT-RIJ (Revised 2003 algorithm where possible)
Printlevel                                  ...      1
Contraction scheme used                     ... SEGMENTED contraction
Coulomb Range Separation                    ... NOT USED
Exchange Range Separation                   ... NOT USED
Finite Nucleus Model                        ... NOT USED
Auxiliary Coulomb fitting basis             ... AVAILABLE
   # of basis functions in Aux-J            ...    840
   # of shells in Aux-J                     ...    280
   Maximum angular momentum in Aux-J        ...      4
Auxiliary J/K fitting basis                 ... NOT available
Auxiliary Correlation fitting basis         ... NOT available
Auxiliary 'external' fitting basis          ... NOT available
Integral threshold                          ...     2.500000e-11
Primitive cut-off                           ...     2.500000e-12
Primitive pair pre-selection threshold      ...     2.500000e-12

Calculating pre-screening integrals         ... done (  0.0 sec) Dimension = 210
Organizing shell pair data                  ... done (  0.1 sec)
Shell pair information
Total number of shell pairs                 ...     22155
Shell pairs after pre-screening             ...     16949
Total number of primitive shell pairs       ...     66780
Primitive shell pairs kept                  ...     36250
          la=0 lb=0:   4633 shell pairs
          la=1 lb=0:   4878 shell pairs
          la=1 lb=1:   1309 shell pairs
          la=2 lb=0:   2390 shell pairs
          la=2 lb=1:   1268 shell pairs
          la=2 lb=2:    324 shell pairs
          la=3 lb=0:   1156 shell pairs
          la=3 lb=1:    612 shell pairs
          la=3 lb=2:    300 shell pairs
          la=3 lb=3:     79 shell pairs

Calculating one electron integrals          ... done (  0.1 sec)
Calculating RI/J V-Matrix + Cholesky decomp.... done (  0.1 sec)
Calculating Nuclear repulsion               ... done (  0.0 sec) ENN=    820.654183985584 Eh

SHARK setup successfully completed in   0.7 seconds

Maximum memory used throughout the entire GTOINT-calculation: 29.3 MB


           ************************************************************
           *        Program running with 8 parallel MPI-processes     *
           *              working on a common directory               *
           ************************************************************
-------------------------------------------------------------------------------
                                 ORCA SCF
-------------------------------------------------------------------------------

------------
SCF SETTINGS
------------
Hamiltonian:
 Density Functional     Method          .... DFT(GTOs)
 Exchange Functional    Exchange        .... B88
   X-Alpha parameter    XAlpha          ....  0.666667
   Becke's b parameter  XBeta           ....  0.004200
 Correlation Functional Correlation     .... LYP
 LDA part of GGA corr.  LDAOpt          .... VWN-5
 Gradients option       PostSCFGGA      .... off
 Hybrid DFT is turned on
   Fraction HF Exchange ScalHFX         ....  0.200000
   Scaling of DF-GGA-X  ScalDFX         ....  0.720000
   Scaling of DF-GGA-C  ScalDFC         ....  0.810000
   Scaling of DF-LDA-C  ScalLDAC        ....  1.000000
   Perturbative correction              ....  0.000000
   Density functional embedding theory  .... OFF
   NL short-range parameter             ....  4.800000
 RI-approximation to the Coulomb term is turned on
   Number of AuxJ basis functions       .... 840
   RIJ-COSX (HFX calculated with COS-X)).... on


General Settings:
 Integral files         IntName         .... TDDFT
 Hartree-Fock type      HFTyp           .... UHF
 Total Charge           Charge          ....    1
 Multiplicity           Mult            ....    2
 Number of Electrons    NEL             ....   99
 Basis Dimension        Dim             ....  518
 Nuclear Repulsion      ENuc            ....    820.6541839856 Eh

Convergence Acceleration:
 DIIS                   CNVDIIS         .... on
   Start iteration      DIISMaxIt       ....    12
   Startup error        DIISStart       ....  0.200000
   # of expansion vecs  DIISMaxEq       ....     5
   Bias factor          DIISBfac        ....   1.050
   Max. coefficient     DIISMaxC        ....  10.000
 Trust-Rad. Augm. Hess. CNVTRAH         .... auto
   Auto Start mean grad. ratio tolernc. ....  1.125000
   Auto Start start iteration           ....    20
   Auto Start num. interpolation iter.  ....    10
   Max. Number of Micro iterations      ....    16
   Max. Number of Macro iterations      .... Maxiter - #DIIS iter
   Number of Davidson start vectors     ....     2
   Converg. threshold I  (grad. norm)   ....   1.000e-05
   Converg. threshold II (energy diff.) ....   1.000e-08
   Grad. Scal. Fac. for Micro threshold ....   0.100
   Minimum threshold for Micro iter.    ....   0.010
   NR start threshold (gradient norm)   ....   0.001
   Initial trust radius                 ....   0.400
   Minimum AH scaling param. (alpha)    ....   1.000
   Maximum AH scaling param. (alpha)    .... 1000.000
   Orbital update algorithm             .... Taylor
   White noise on init. David. guess    .... on
   Maximum white noise                  ....   0.010
   Quad. conv. algorithm                .... NR
 SOSCF                  CNVSOSCF        .... off
 Level Shifting         CNVShift        .... on
   Level shift para.    LevelShift      ....    0.2500
   Turn off err/grad.   ShiftErr        ....    0.0010
 Zerner damping         CNVZerner       .... off
 Static damping         CNVDamp         .... on
   Fraction old density DampFac         ....    0.7000
   Max. Damping (<1)    DampMax         ....    0.9800
   Min. Damping (>=0)   DampMin         ....    0.0000
   Turn off err/grad.   DampErr         ....    0.1000
 Fernandez-Rico         CNVRico         .... off

SCF Procedure:
 Maximum # iterations   MaxIter         ....  1000
 SCF integral mode      SCFMode         .... Direct
   Integral package                     .... SHARK and LIBINT hybrid scheme
 Reset frequency        DirectResetFreq ....    20
 Integral Threshold     Thresh          ....  2.500e-11 Eh
 Primitive CutOff       TCut            ....  2.500e-12 Eh

Convergence Tolerance:
 Convergence Check Mode ConvCheckMode   .... Total+1el-Energy
 Convergence forced     ConvForced      .... 1
 Energy Change          TolE            ....  1.000e-08 Eh
 1-El. energy change                    ....  1.000e-05 Eh
 DIIS Error             TolErr          ....  5.000e-07


Diagonalization of the overlap matrix:
Smallest eigenvalue                        ... 1.851e-05
Time for diagonalization                   ...    0.499 sec
Threshold for overlap eigenvalues          ... 1.000e-08
Number of eigenvalues below threshold      ... 0
Time for construction of square roots      ...    0.043 sec
Total time needed                          ...    0.543 sec

Time for model grid setup =    0.253 sec

------------------------------
INITIAL GUESS: MODEL POTENTIAL
------------------------------
Loading Hartree-Fock densities                     ... done
Calculating cut-offs                               ... done
Initializing the effective Hamiltonian             ... done
Setting up the integral package (SHARK)            ... done
Starting the Coulomb interaction                   ... done (   0.3 sec)
Reading the grid                                   ... done
Mapping shells                                     ... done
Starting the XC term evaluation                    ... done (   0.1 sec)
  promolecular density results
     # of electrons  =     99.991661312
     EX              =    -79.102504243
     EC              =     -3.348257543
     EX+EC           =    -82.450761786
Transforming the Hamiltonian                       ... done (   0.0 sec)
Diagonalizing the Hamiltonian                      ... done (   0.0 sec)
Back transforming the eigenvectors                 ... done (   0.0 sec)
Now organizing SCF variables                       ... done
                      ------------------
                      INITIAL GUESS DONE (   0.8 sec)
                      ------------------
-------------------
DFT GRID GENERATION
-------------------

General Integration Accuracy     IntAcc      ... 4.388
Radial Grid Type                 RadialGrid  ... OptM3 with GC (2021)
Angular Grid (max. ang.)         AngularGrid ... 4 (Lebedev-302)
Angular grid pruning method      GridPruning ... 4 (adaptive)
Weight generation scheme         WeightScheme... Becke
Basis function cutoff            BFCut       ... 1.0000e-11
Integration weight cutoff        WCut        ... 1.0000e-14
Angular grids for H and He will be reduced by one unit
Partially contracted basis set               ... off
Rotationally invariant grid construction     ... off

Total number of grid points                  ...   128616
Total number of batches                      ...     2024
Average number of points per batch           ...       63
Average number of grid points per atom       ...     4593
Time for grid setup =    0.696 sec

--------------------
COSX GRID GENERATION
--------------------

GRIDX 1
-------
General Integration Accuracy     IntAcc      ... 3.816
Radial Grid Type                 RadialGrid  ... OptM3 with GC (2021)
Angular Grid (max. ang.)         AngularGrid ... 1 (Lebedev-50)
Angular grid pruning method      GridPruning ... 4 (adaptive)
Weight generation scheme         WeightScheme... Becke
Basis function cutoff            BFCut       ... 1.0000e-11
Integration weight cutoff        WCut        ... 1.0000e-14
Angular grids for H and He will be reduced by one unit
Partially contracted basis set               ... on
Rotationally invariant grid construction     ... off

Total number of grid points                  ...    16475
Total number of batches                      ...      270
Average number of points per batch           ...       61
Average number of grid points per atom       ...      588
UseSFitting                                  ... on

GRIDX 2
-------
General Integration Accuracy     IntAcc      ... 4.020
Radial Grid Type                 RadialGrid  ... OptM3 with GC (2021)
Angular Grid (max. ang.)         AngularGrid ... 2 (Lebedev-110)
Angular grid pruning method      GridPruning ... 4 (adaptive)
Weight generation scheme         WeightScheme... Becke
Basis function cutoff            BFCut       ... 1.0000e-11
Integration weight cutoff        WCut        ... 1.0000e-14
Angular grids for H and He will be reduced by one unit
Partially contracted basis set               ... on
Rotationally invariant grid construction     ... off

Total number of grid points                  ...    35254
Total number of batches                      ...      564
Average number of points per batch           ...       62
Average number of grid points per atom       ...     1259
UseSFitting                                  ... on

GRIDX 3
-------
General Integration Accuracy     IntAcc      ... 4.338
Radial Grid Type                 RadialGrid  ... OptM3 with GC (2021)
Angular Grid (max. ang.)         AngularGrid ... 3 (Lebedev-194)
Angular grid pruning method      GridPruning ... 4 (adaptive)
Weight generation scheme         WeightScheme... Becke
Basis function cutoff            BFCut       ... 1.0000e-11
Integration weight cutoff        WCut        ... 1.0000e-14
Angular grids for H and He will be reduced by one unit
Partially contracted basis set               ... on
Rotationally invariant grid construction     ... off

Total number of grid points                  ...    77221
Total number of batches                      ...     1222
Average number of points per batch           ...       63
Average number of grid points per atom       ...     2758
UseSFitting                                  ... on

Time for X-Grid setup             =    0.906 sec

--------------
SCF ITERATIONS
--------------
ITER       Energy         Delta-E        Max-DP      RMS-DP      [F,P]     Damp
               ***  Starting incremental Fock matrix formation  ***
  0   -574.5762414999   0.000000000000 0.01526321  0.00030867  0.0666596 0.7000
  1   -574.6873255169  -0.111084017013 0.01017920  0.00022675  0.0374403 0.7000
                               ***Turning on DIIS***
  2   -574.7376487440  -0.050323227087 0.01770782  0.00041116  0.0191524 0.0000
  3   -574.8109643851  -0.073315641033 0.00669581  0.00016280  0.0184585 0.0000
  4   -574.8287773613  -0.017812976195 0.00212632  0.00004832  0.0042352 0.0000
  5   -574.8295460081  -0.000768646829 0.00073443  0.00001876  0.0012725 0.0000
  6   -574.8296371574  -0.000091149352 0.00075057  0.00001284  0.0007629 0.0000
               *** Restarting incremental Fock matrix formation ***
                                   *** Resetting DIIS ***
  7   -574.8296033407   0.000033816734 0.00055270  0.00000854  0.0005067 0.0000
  8   -574.8296021464   0.000001194321 0.00021252  0.00000225  0.0005321 0.0000
  9   -574.8296072091  -0.000005062758 0.00010519  0.00000091  0.0000702 0.0000
 10   -574.8296073318  -0.000000122693 0.00005962  0.00000051  0.0000626 0.0000
 11   -574.8296074618  -0.000000129997 0.00003669  0.00000034  0.0000332 0.0000
 12   -574.8296075033  -0.000000041448 0.00001588  0.00000021  0.0000173 0.0000
 13   -574.8296075081  -0.000000004800 0.00001861  0.00000027  0.0000044 0.0000
 14   -574.8296075196  -0.000000011534 0.00001586  0.00000024  0.0000017 0.0000
 15   -574.8296075051   0.000000014503 0.00002573  0.00000029  0.0000013 0.0000
                            ***DIIS convergence achieved***

               *****************************************************
               *                     SUCCESS                       *
               *           SCF CONVERGED AFTER  16 CYCLES          *
               *****************************************************

Old exchange energy                            =    -16.051473174 Eh
New exchange energy                            =    -16.051454397 Eh
Exchange energy change after final integration =      0.000018778 Eh
Total energy after final integration           =   -574.829588728 Eh
Final COS-X integration done in                =    10.152 sec

----------------
TOTAL SCF ENERGY
----------------

Total Energy       :         -574.82958873 Eh          -15641.90833 eV

Components:
Nuclear Repulsion  :          820.65418399 Eh           22331.13564 eV
Electronic Energy  :        -1395.48377271 Eh          -37973.04397 eV
One Electron Energy:        -2389.06083609 Eh          -65009.65038 eV
Two Electron Energy:          993.57706337 Eh           27036.60641 eV
Max COSX asymmetry :            0.00000054 Eh               0.00001 eV

Virial components:
Potential Energy   :        -1146.99995551 Eh          -31211.45555 eV
Kinetic Energy     :          572.17036678 Eh           15569.54722 eV
Virial Ratio       :            2.00464761


DFT components:
N(Alpha)           :       50.000086416478 electrons
N(Beta)            :       49.000085267878 electrons
N(Total)           :       99.000171684355 electrons
E(X)               :      -63.761604247409 Eh       
E(C)               :       -3.916721582825 Eh       
E(XC)              :      -67.678325830234 Eh       
DFET-embed. en.    :        0.000000000000 Eh       

---------------
SCF CONVERGENCE
---------------

  Last Energy change         ...   -4.2405e-10  Tolerance :   1.0000e-08
  Last MAX-Density change    ...    0.0000e+00  Tolerance :   1.0000e-07
  Last RMS-Density change    ...    0.0000e+00  Tolerance :   5.0000e-09
  Last DIIS Error            ...    8.0522e-07  Tolerance :   5.0000e-07

             **** THE GBW FILE WAS UPDATED (TDDFT.gbw) ****
             **** DENSITY TDDFT.scfp WAS UPDATED ****
             **** ENERGY FILE WAS UPDATED (TDDFT.en.tmp) ****
----------------------
UHF SPIN CONTAMINATION
----------------------

Warning: in a DFT calculation there is little theoretical justification to 
         calculate <S**2> as in Hartree-Fock theory. We will do it anyways
         but you should keep in mind that the values have only limited relevance

Expectation value of <S**2>     :     0.756080
Ideal value S*(S+1) for S=0.5   :     0.750000
Deviation                       :     0.006080

             **** THE GBW FILE WAS UPDATED (TDDFT.gbw) ****
             **** DENSITY TDDFT.scfp WAS UPDATED ****
----------------
ORBITAL ENERGIES
----------------
                 SPIN UP ORBITALS
  NO   OCC          E(Eh)            E(eV) 
   0   1.0000     -14.522709      -395.1830 
   1   1.0000     -14.522704      -395.1829 
   2   1.0000     -10.353527      -281.7338 
   3   1.0000     -10.353516      -281.7335 
   4   1.0000     -10.353443      -281.7315 
   5   1.0000     -10.353435      -281.7313 
   6   1.0000     -10.337916      -281.3090 
   7   1.0000     -10.337914      -281.3090 
   8   1.0000     -10.330201      -281.0991 
   9   1.0000     -10.329761      -281.0871 
  10   1.0000     -10.314612      -280.6749 
  11   1.0000     -10.314600      -280.6745 
  12   1.0000     -10.314531      -280.6726 
  13   1.0000     -10.314520      -280.6724 
  14   1.0000      -1.133684       -30.8491 
  15   1.0000      -1.133185       -30.8355 
  16   1.0000      -0.989502       -26.9257 
  17   1.0000      -0.945299       -25.7229 
  18   1.0000      -0.918572       -24.9956 
  19   1.0000      -0.913609       -24.8606 
  20   1.0000      -0.877452       -23.8767 
  21   1.0000      -0.840621       -22.8745 
  22   1.0000      -0.798069       -21.7166 
  23   1.0000      -0.793932       -21.6040 
  24   1.0000      -0.774613       -21.0783 
  25   1.0000      -0.743526       -20.2324 
  26   1.0000      -0.686202       -18.6725 
  27   1.0000      -0.659859       -17.9557 
  28   1.0000      -0.655738       -17.8435 
  29   1.0000      -0.636420       -17.3179 
  30   1.0000      -0.613461       -16.6931 
  31   1.0000      -0.608391       -16.5552 
  32   1.0000      -0.607474       -16.5302 
  33   1.0000      -0.596136       -16.2217 
  34   1.0000      -0.595819       -16.2131 
  35   1.0000      -0.585413       -15.9299 
  36   1.0000      -0.573265       -15.5993 
  37   1.0000      -0.541420       -14.7328 
  38   1.0000      -0.540736       -14.7142 
  39   1.0000      -0.534217       -14.5368 
  40   1.0000      -0.533625       -14.5207 
  41   1.0000      -0.519043       -14.1239 
  42   1.0000      -0.515951       -14.0397 
  43   1.0000      -0.511056       -13.9065 
  44   1.0000      -0.480960       -13.0876 
  45   1.0000      -0.470885       -12.8134 
  46   1.0000      -0.419480       -11.4146 
  47   1.0000      -0.414337       -11.2747 
  48   1.0000      -0.401991       -10.9387 
  49   1.0000      -0.278362        -7.5746 
  50   0.0000      -0.166352        -4.5267 
  51   0.0000      -0.165447        -4.5021 
  52   0.0000      -0.142376        -3.8743 
  53   0.0000      -0.079192        -2.1549 
  54   0.0000      -0.075181        -2.0458 
  55   0.0000      -0.061842        -1.6828 
  56   0.0000      -0.058432        -1.5900 
  57   0.0000      -0.058389        -1.5888 
  58   0.0000      -0.042975        -1.1694 
  59   0.0000      -0.037151        -1.0109 
  60   0.0000      -0.026324        -0.7163 
  61   0.0000      -0.021820        -0.5938 
  62   0.0000      -0.020647        -0.5618 
  63   0.0000      -0.017341        -0.4719 
  64   0.0000      -0.005967        -0.1624 
  65   0.0000       0.006415         0.1745 
  66   0.0000       0.008502         0.2313 
  67   0.0000       0.008702         0.2368 
  68   0.0000       0.012585         0.3425 
  69   0.0000       0.015905         0.4328 
  70   0.0000       0.036567         0.9950 
  71   0.0000       0.041900         1.1402 
  72   0.0000       0.050557         1.3757 
  73   0.0000       0.057353         1.5606 
  74   0.0000       0.058224         1.5844 
  75   0.0000       0.067449         1.8354 
  76   0.0000       0.074011         2.0139 
  77   0.0000       0.091193         2.4815 
  78   0.0000       0.094247         2.5646 
  79   0.0000       0.094950         2.5837 
  80   0.0000       0.096408         2.6234 
  81   0.0000       0.101878         2.7722 
  82   0.0000       0.105829         2.8798 
  83   0.0000       0.116188         3.1616 
  84   0.0000       0.117920         3.2088 
  85   0.0000       0.134550         3.6613 
  86   0.0000       0.136384         3.7112 
  87   0.0000       0.147593         4.0162 
  88   0.0000       0.150204         4.0873 
  89   0.0000       0.151716         4.1284 
  90   0.0000       0.160727         4.3736 
  91   0.0000       0.176040         4.7903 
  92   0.0000       0.179959         4.8969 
  93   0.0000       0.186356         5.0710 
  94   0.0000       0.188551         5.1307 
  95   0.0000       0.189442         5.1550 
  96   0.0000       0.191692         5.2162 
  97   0.0000       0.208607         5.6765 
  98   0.0000       0.213586         5.8120 
  99   0.0000       0.221764         6.0345 
 100   0.0000       0.232109         6.3160 
 101   0.0000       0.238913         6.5012 
 102   0.0000       0.245834         6.6895 
 103   0.0000       0.247459         6.7337 
 104   0.0000       0.249046         6.7769 
 105   0.0000       0.256572         6.9817 
 106   0.0000       0.265615         7.2278 
 107   0.0000       0.274459         7.4684 
 108   0.0000       0.277335         7.5467 
 109   0.0000       0.289513         7.8781 
 110   0.0000       0.299462         8.1488 
 111   0.0000       0.300563         8.1787 
 112   0.0000       0.301837         8.2134 
 113   0.0000       0.307235         8.3603 
 114   0.0000       0.311000         8.4627 
 115   0.0000       0.312936         8.5154 
 116   0.0000       0.324089         8.8189 
 117   0.0000       0.343674         9.3518 
 118   0.0000       0.344930         9.3860 
 119   0.0000       0.345757         9.4085 
 120   0.0000       0.350923         9.5491 
 121   0.0000       0.371448        10.1076 
 122   0.0000       0.372999        10.1498 
 123   0.0000       0.374511        10.1910 
 124   0.0000       0.380212        10.3461 
 125   0.0000       0.385936        10.5019 
 126   0.0000       0.396581        10.7915 
 127   0.0000       0.412695        11.2300 
 128   0.0000       0.421928        11.4812 
 129   0.0000       0.425604        11.5813 
 130   0.0000       0.436533        11.8787 
 131   0.0000       0.444132        12.0855 
 132   0.0000       0.464925        12.6513 
 133   0.0000       0.465088        12.6557 
 134   0.0000       0.471701        12.8356 
 135   0.0000       0.475221        12.9314 
 136   0.0000       0.490582        13.3494 
 137   0.0000       0.492101        13.3908 
 138   0.0000       0.492435        13.3998 
 139   0.0000       0.505566        13.7572 
 140   0.0000       0.511900        13.9295 
 141   0.0000       0.531801        14.4711 
 142   0.0000       0.534626        14.5479 
 143   0.0000       0.536691        14.6041 
 144   0.0000       0.539302        14.6751 
 145   0.0000       0.546980        14.8841 
 146   0.0000       0.551695        15.0124 
 147   0.0000       0.578518        15.7423 
 148   0.0000       0.584446        15.9036 
 149   0.0000       0.587125        15.9765 
 150   0.0000       0.591446        16.0941 
 151   0.0000       0.605216        16.4688 
 152   0.0000       0.608439        16.5565 
 153   0.0000       0.613003        16.6807 
 154   0.0000       0.628862        17.1122 
 155   0.0000       0.635701        17.2983 
 156   0.0000       0.643968        17.5233 
 157   0.0000       0.655952        17.8494 
 158   0.0000       0.661546        18.0016 
 159   0.0000       0.680966        18.5300 
 160   0.0000       0.685271        18.6472 
 161   0.0000       0.691400        18.8139 
 162   0.0000       0.696353        18.9487 
 163   0.0000       0.716315        19.4919 
 164   0.0000       0.729897        19.8615 
 165   0.0000       0.739491        20.1226 
 166   0.0000       0.742083        20.1931 
 167   0.0000       0.748168        20.3587 
 168   0.0000       0.755306        20.5529 
 169   0.0000       0.798005        21.7148 
 170   0.0000       0.800101        21.7719 
 171   0.0000       0.809080        22.0162 
 172   0.0000       0.815826        22.1998 
 173   0.0000       0.828585        22.5470 
 174   0.0000       0.860523        23.4160 
 175   0.0000       0.872315        23.7369 
 176   0.0000       0.878225        23.8977 
 177   0.0000       0.896831        24.4040 
 178   0.0000       0.896950        24.4073 
 179   0.0000       0.899661        24.4810 
 180   0.0000       0.931264        25.3410 
 181   0.0000       0.932011        25.3613 
 182   0.0000       0.940881        25.6027 
 183   0.0000       0.963133        26.2082 
 184   0.0000       0.964101        26.2345 
 185   0.0000       0.972559        26.4647 
 186   0.0000       0.986713        26.8498 
 187   0.0000       1.010613        27.5002 
 188   0.0000       1.022709        27.8293 
 189   0.0000       1.031605        28.0714 
 190   0.0000       1.039224        28.2787 
 191   0.0000       1.051588        28.6152 
 192   0.0000       1.071128        29.1469 
 193   0.0000       1.072710        29.1899 
 194   0.0000       1.089909        29.6579 
 195   0.0000       1.108878        30.1741 
 196   0.0000       1.133757        30.8511 
 197   0.0000       1.150491        31.3065 
 198   0.0000       1.166274        31.7359 
 199   0.0000       1.173678        31.9374 
 200   0.0000       1.174786        31.9676 
 201   0.0000       1.180255        32.1164 
 202   0.0000       1.217548        33.1312 
 203   0.0000       1.220861        33.2213 
 204   0.0000       1.223479        33.2926 
 205   0.0000       1.229039        33.4439 
 206   0.0000       1.232432        33.5362 
 207   0.0000       1.252142        34.0725 
 208   0.0000       1.255568        34.1657 
 209   0.0000       1.260117        34.2895 
 210   0.0000       1.277804        34.7708 
 211   0.0000       1.282845        34.9080 
 212   0.0000       1.298295        35.3284 
 213   0.0000       1.304819        35.5059 
 214   0.0000       1.308729        35.6123 
 215   0.0000       1.332940        36.2711 
 216   0.0000       1.337919        36.4066 
 217   0.0000       1.348984        36.7077 
 218   0.0000       1.356794        36.9202 
 219   0.0000       1.376593        37.4590 
 220   0.0000       1.384314        37.6691 
 221   0.0000       1.387147        37.7462 
 222   0.0000       1.395261        37.9670 
 223   0.0000       1.406413        38.2705 
 224   0.0000       1.414393        38.4876 
 225   0.0000       1.425264        38.7834 
 226   0.0000       1.434607        39.0377 
 227   0.0000       1.443836        39.2888 
 228   0.0000       1.445293        39.3284 
 229   0.0000       1.450337        39.4657 
 230   0.0000       1.473945        40.1081 
 231   0.0000       1.488380        40.5009 
 232   0.0000       1.489330        40.5267 
 233   0.0000       1.499188        40.7950 
 234   0.0000       1.513289        41.1787 
 235   0.0000       1.517844        41.3026 
 236   0.0000       1.520094        41.3639 
 237   0.0000       1.530747        41.6537 
 238   0.0000       1.561501        42.4906 
 239   0.0000       1.562707        42.5234 
 240   0.0000       1.566377        42.6233 
 241   0.0000       1.581106        43.0241 
 242   0.0000       1.587695        43.2034 
 243   0.0000       1.599818        43.5333 
 244   0.0000       1.608208        43.7616 
 245   0.0000       1.611644        43.8551 
 246   0.0000       1.625367        44.2285 
 247   0.0000       1.630334        44.3636 
 248   0.0000       1.646172        44.7946 
 249   0.0000       1.682192        45.7748 
 250   0.0000       1.688159        45.9371 
 251   0.0000       1.691319        46.0231 
 252   0.0000       1.708493        46.4904 
 253   0.0000       1.722365        46.8679 
 254   0.0000       1.754537        47.7434 
 255   0.0000       1.765557        48.0432 
 256   0.0000       1.782292        48.4986 
 257   0.0000       1.786556        48.6147 
 258   0.0000       1.799143        48.9572 
 259   0.0000       1.821255        49.5589 
 260   0.0000       1.831049        49.8254 
 261   0.0000       1.846113        50.2353 
 262   0.0000       1.874261        51.0012 
 263   0.0000       1.884648        51.2839 
 264   0.0000       1.896711        51.6121 
 265   0.0000       1.917718        52.1838 
 266   0.0000       1.933899        52.6241 
 267   0.0000       1.936134        52.6849 
 268   0.0000       1.938340        52.7449 
 269   0.0000       1.955850        53.2214 
 270   0.0000       1.969530        53.5936 
 271   0.0000       1.986151        54.0459 
 272   0.0000       1.988905        54.1208 
 273   0.0000       1.995776        54.3078 
 274   0.0000       1.998450        54.3806 
 275   0.0000       2.021891        55.0185 
 276   0.0000       2.036601        55.4187 
 277   0.0000       2.037966        55.4559 
 278   0.0000       2.074259        56.4435 
 279   0.0000       2.091144        56.9029 
 280   0.0000       2.124645        57.8145 
 281   0.0000       2.127894        57.9029 
 282   0.0000       2.145273        58.3759 
 283   0.0000       2.145702        58.3875 
 284   0.0000       2.156623        58.6847 
 285   0.0000       2.167733        58.9870 
 286   0.0000       2.175856        59.2081 
 287   0.0000       2.200739        59.8852 
 288   0.0000       2.218502        60.3685 
 289   0.0000       2.224107        60.5210 
 290   0.0000       2.225969        60.5717 
 291   0.0000       2.245789        61.1110 
 292   0.0000       2.253655        61.3251 
 293   0.0000       2.274987        61.9055 
 294   0.0000       2.287213        62.2382 
 295   0.0000       2.296754        62.4978 
 296   0.0000       2.318071        63.0779 
 297   0.0000       2.352404        64.0122 
 298   0.0000       2.359750        64.2121 
 299   0.0000       2.373930        64.5979 
 300   0.0000       2.391064        65.0642 
 301   0.0000       2.392295        65.0977 
 302   0.0000       2.395994        65.1983 
 303   0.0000       2.399697        65.2991 
 304   0.0000       2.402049        65.3631 
 305   0.0000       2.429177        66.1013 
 306   0.0000       2.431794        66.1725 
 307   0.0000       2.444753        66.5251 
 308   0.0000       2.469516        67.1989 
 309   0.0000       2.485955        67.6463 
 310   0.0000       2.486646        67.6651 
 311   0.0000       2.492609        67.8273 
 312   0.0000       2.502628        68.1000 
 313   0.0000       2.518954        68.5442 
 314   0.0000       2.526261        68.7431 
 315   0.0000       2.552561        69.4587 
 316   0.0000       2.574487        70.0554 
 317   0.0000       2.575256        70.0763 
 318   0.0000       2.578432        70.1627 
 319   0.0000       2.581137        70.2363 
 320   0.0000       2.604746        70.8787 
 321   0.0000       2.608626        70.9843 
 322   0.0000       2.612862        71.0996 
 323   0.0000       2.627889        71.5085 
 324   0.0000       2.633672        71.6659 
 325   0.0000       2.648086        72.0581 
 326   0.0000       2.650481        72.1233 
 327   0.0000       2.653974        72.2183 
 328   0.0000       2.674521        72.7774 
 329   0.0000       2.689260        73.1785 
 330   0.0000       2.695996        73.3618 
 331   0.0000       2.696532        73.3764 
 332   0.0000       2.726854        74.2015 
 333   0.0000       2.737292        74.4855 
 334   0.0000       2.753329        74.9219 
 335   0.0000       2.757740        75.0419 
 336   0.0000       2.764667        75.2304 
 337   0.0000       2.775640        75.5290 
 338   0.0000       2.779920        75.6455 
 339   0.0000       2.792738        75.9943 
 340   0.0000       2.810517        76.4781 
 341   0.0000       2.815111        76.6031 
 342   0.0000       2.839334        77.2622 
 343   0.0000       2.849528        77.5396 
 344   0.0000       2.853517        77.6481 
 345   0.0000       2.869317        78.0781 
 346   0.0000       2.879115        78.3447 
 347   0.0000       2.897521        78.8455 
 348   0.0000       2.901104        78.9431 
 349   0.0000       2.906666        79.0944 
 350   0.0000       2.912867        79.2631 
 351   0.0000       2.921442        79.4965 
 352   0.0000       2.928700        79.6940 
 353   0.0000       2.936963        79.9188 
 354   0.0000       2.943545        80.0979 
 355   0.0000       2.948709        80.2385 
 356   0.0000       2.952262        80.3351 
 357   0.0000       2.952730        80.3479 
 358   0.0000       2.956569        80.4523 
 359   0.0000       2.957070        80.4660 
 360   0.0000       2.987493        81.2938 
 361   0.0000       2.992097        81.4191 
 362   0.0000       3.004564        81.7584 
 363   0.0000       3.020904        82.2030 
 364   0.0000       3.022903        82.2574 
 365   0.0000       3.022974        82.2593 
 366   0.0000       3.038119        82.6714 
 367   0.0000       3.038360        82.6780 
 368   0.0000       3.071595        83.5824 
 369   0.0000       3.092002        84.1377 
 370   0.0000       3.095114        84.2223 
 371   0.0000       3.096059        84.2481 
 372   0.0000       3.105282        84.4990 
 373   0.0000       3.115604        84.7799 
 374   0.0000       3.125401        85.0465 
 375   0.0000       3.131966        85.2251 
 376   0.0000       3.160873        86.0117 
 377   0.0000       3.162843        86.0653 
 378   0.0000       3.174575        86.3846 
 379   0.0000       3.181114        86.5625 
 380   0.0000       3.194612        86.9298 
 381   0.0000       3.203208        87.1637 
 382   0.0000       3.210064        87.3503 
 383   0.0000       3.210150        87.3526 
 384   0.0000       3.237405        88.0943 
 385   0.0000       3.239051        88.1391 
 386   0.0000       3.254156        88.5501 
 387   0.0000       3.259930        88.7072 
 388   0.0000       3.260053        88.7106 
 389   0.0000       3.277106        89.1746 
 390   0.0000       3.294986        89.6611 
 391   0.0000       3.307156        89.9923 
 392   0.0000       3.325690        90.4966 
 393   0.0000       3.330494        90.6273 
 394   0.0000       3.332556        90.6835 
 395   0.0000       3.349293        91.1389 
 396   0.0000       3.352792        91.2341 
 397   0.0000       3.353143        91.2437 
 398   0.0000       3.356272        91.3288 
 399   0.0000       3.369456        91.6876 
 400   0.0000       3.386503        92.1514 
 401   0.0000       3.389214        92.2252 
 402   0.0000       3.396153        92.4140 
 403   0.0000       3.400483        92.5318 
 404   0.0000       3.400720        92.5383 
 405   0.0000       3.410142        92.7947 
 406   0.0000       3.444866        93.7396 
 407   0.0000       3.452608        93.9502 
 408   0.0000       3.465462        94.3000 
 409   0.0000       3.471031        94.4516 
 410   0.0000       3.512580        95.5822 
 411   0.0000       3.512897        95.5908 
 412   0.0000       3.538590        96.2899 
 413   0.0000       3.571701        97.1909 
 414   0.0000       3.584720        97.5452 
 415   0.0000       3.589668        97.6798 
 416   0.0000       3.655515        99.4716 
 417   0.0000       3.662570        99.6636 
 418   0.0000       3.678443       100.0955 
 419   0.0000       3.685581       100.2898 
 420   0.0000       3.716419       101.1289 
 421   0.0000       3.733881       101.6041 
 422   0.0000       3.754093       102.1541 
 423   0.0000       3.755097       102.1814 
 424   0.0000       3.760488       102.3281 
 425   0.0000       3.766219       102.4840 
 426   0.0000       3.790132       103.1347 
 427   0.0000       3.869509       105.2947 
 428   0.0000       3.877911       105.5233 
 429   0.0000       3.894856       105.9844 
 430   0.0000       3.904882       106.2572 
 431   0.0000       3.929200       106.9190 
 432   0.0000       3.944891       107.3459 
 433   0.0000       3.950252       107.4918 
 434   0.0000       3.950548       107.4999 
 435   0.0000       3.961638       107.8017 
 436   0.0000       3.992126       108.6313 
 437   0.0000       3.999955       108.8443 
 438   0.0000       4.073060       110.8336 
 439   0.0000       4.087485       111.2261 
 440   0.0000       4.096298       111.4659 
 441   0.0000       4.104390       111.6861 
 442   0.0000       4.107820       111.7795 
 443   0.0000       4.113240       111.9270 
 444   0.0000       4.117474       112.0422 
 445   0.0000       4.135879       112.5430 
 446   0.0000       4.155124       113.0667 
 447   0.0000       4.170830       113.4941 
 448   0.0000       4.177836       113.6847 
 449   0.0000       4.214512       114.6827 
 450   0.0000       4.233225       115.1919 
 451   0.0000       4.240951       115.4022 
 452   0.0000       4.245013       115.5127 
 453   0.0000       4.254008       115.7574 
 454   0.0000       4.274486       116.3147 
 455   0.0000       4.300316       117.0175 
 456   0.0000       4.377034       119.1051 
 457   0.0000       4.421932       120.3269 
 458   0.0000       4.436131       120.7133 
 459   0.0000       4.470198       121.6403 
 460   0.0000       4.470797       121.6566 
 461   0.0000       4.533050       123.3506 
 462   0.0000       4.542716       123.6136 
 463   0.0000       4.566037       124.2482 
 464   0.0000       4.580753       124.6486 
 465   0.0000       4.607493       125.3763 
 466   0.0000       4.710089       128.1680 
 467   0.0000       4.727781       128.6495 
 468   0.0000       4.740012       128.9823 
 469   0.0000       4.765681       129.6808 
 470   0.0000       4.773787       129.9014 
 471   0.0000       4.795398       130.4894 
 472   0.0000       4.796242       130.5124 
 473   0.0000       4.841832       131.7530 
 474   0.0000       4.842475       131.7705 
 475   0.0000       4.871286       132.5544 
 476   0.0000       4.875588       132.6715 
 477   0.0000       4.880620       132.8084 
 478   0.0000       4.944818       134.5553 
 479   0.0000       4.987480       135.7162 
 480   0.0000       4.990105       135.7877 
 481   0.0000       5.052667       137.4901 
 482   0.0000       5.053818       137.5214 
 483   0.0000       5.065854       137.8489 
 484   0.0000       5.080776       138.2549 
 485   0.0000       5.094816       138.6370 
 486   0.0000       5.117240       139.2472 
 487   0.0000       5.134737       139.7233 
 488   0.0000       5.196525       141.4046 
 489   0.0000       5.254757       142.9892 
 490   0.0000       5.262015       143.1867 
 491   0.0000       5.265229       143.2742 
 492   0.0000       5.376158       146.2927 
 493   0.0000       5.399208       146.9199 
 494   0.0000       5.476507       149.0233 
 495   0.0000       5.568417       151.5243 
 496   0.0000       5.657623       153.9518 
 497   0.0000       5.685549       154.7116 
 498   0.0000       5.697189       155.0284 
 499   0.0000       5.768876       156.9791 
 500   0.0000       5.784558       157.4058 
 501   0.0000       5.818325       158.3247 
 502   0.0000       5.881527       160.0445 
 503   0.0000       6.051166       164.6606 
 504   0.0000      22.160146       603.0082 
 505   0.0000      22.298424       606.7710 
 506   0.0000      22.301686       606.8597 
 507   0.0000      22.412680       609.8800 
 508   0.0000      22.465521       611.3179 
 509   0.0000      22.639358       616.0482 
 510   0.0000      22.706693       617.8805 
 511   0.0000      22.719745       618.2357 
 512   0.0000      22.730866       618.5383 
 513   0.0000      22.813411       620.7845 
 514   0.0000      22.889754       622.8619 
 515   0.0000      23.243498       632.4877 
 516   0.0000      32.666306       888.8954 
 517   0.0000      32.738782       890.8675 

                 SPIN DOWN ORBITALS
  NO   OCC          E(Eh)            E(eV) 
   0   1.0000     -14.518428      -395.0665 
   1   1.0000     -14.518423      -395.0664 
   2   1.0000     -10.352950      -281.7181 
   3   1.0000     -10.352939      -281.7178 
   4   1.0000     -10.352864      -281.7158 
   5   1.0000     -10.352855      -281.7155 
   6   1.0000     -10.338118      -281.3145 
   7   1.0000     -10.338117      -281.3145 
   8   1.0000     -10.327826      -281.0344 
   9   1.0000     -10.327410      -281.0231 
  10   1.0000     -10.313960      -280.6571 
  11   1.0000     -10.313947      -280.6568 
  12   1.0000     -10.313868      -280.6546 
  13   1.0000     -10.313856      -280.6543 
  14   1.0000      -1.127297       -30.6753 
  15   1.0000      -1.126777       -30.6612 
  16   1.0000      -0.983849       -26.7719 
  17   1.0000      -0.941984       -25.6327 
  18   1.0000      -0.915241       -24.9050 
  19   1.0000      -0.910236       -24.7688 
  20   1.0000      -0.873926       -23.7807 
  21   1.0000      -0.839371       -22.8404 
  22   1.0000      -0.796734       -21.6802 
  23   1.0000      -0.788414       -21.4538 
  24   1.0000      -0.772826       -21.0297 
  25   1.0000      -0.740004       -20.1365 
  26   1.0000      -0.684758       -18.6332 
  27   1.0000      -0.657668       -17.8961 
  28   1.0000      -0.653769       -17.7900 
  29   1.0000      -0.633140       -17.2286 
  30   1.0000      -0.611967       -16.6525 
  31   1.0000      -0.598545       -16.2873 
  32   1.0000      -0.598535       -16.2870 
  33   1.0000      -0.594244       -16.1702 
  34   1.0000      -0.593744       -16.1566 
  35   1.0000      -0.584651       -15.9092 
  36   1.0000      -0.572514       -15.5789 
  37   1.0000      -0.540293       -14.7021 
  38   1.0000      -0.539825       -14.6894 
  39   1.0000      -0.533702       -14.5228 
  40   1.0000      -0.524951       -14.2846 
  41   1.0000      -0.517937       -14.0938 
  42   1.0000      -0.509193       -13.8559 
  43   1.0000      -0.508395       -13.8341 
  44   1.0000      -0.480123       -13.0648 
  45   1.0000      -0.452719       -12.3191 
  46   1.0000      -0.408857       -11.1256 
  47   1.0000      -0.404074       -10.9954 
  48   1.0000      -0.385828       -10.4989 
  49   0.0000      -0.221339        -6.0229 
  50   0.0000      -0.162211        -4.4140 
  51   0.0000      -0.143584        -3.9071 
  52   0.0000      -0.138614        -3.7719 
  53   0.0000      -0.078873        -2.1462 
  54   0.0000      -0.074878        -2.0375 
  55   0.0000      -0.061384        -1.6703 
  56   0.0000      -0.058194        -1.5835 
  57   0.0000      -0.046414        -1.2630 
  58   0.0000      -0.042357        -1.1526 
  59   0.0000      -0.037039        -1.0079 
  60   0.0000      -0.024618        -0.6699 
  61   0.0000      -0.019966        -0.5433 
  62   0.0000      -0.019219        -0.5230 
  63   0.0000      -0.017035        -0.4635 
  64   0.0000      -0.003548        -0.0965 
  65   0.0000       0.006825         0.1857 
  66   0.0000       0.009231         0.2512 
  67   0.0000       0.010334         0.2812 
  68   0.0000       0.017503         0.4763 
  69   0.0000       0.017998         0.4898 
  70   0.0000       0.042071         1.1448 
  71   0.0000       0.043551         1.1851 
  72   0.0000       0.050998         1.3877 
  73   0.0000       0.058977         1.6048 
  74   0.0000       0.062478         1.7001 
  75   0.0000       0.068868         1.8740 
  76   0.0000       0.075748         2.0612 
  77   0.0000       0.092963         2.5297 
  78   0.0000       0.096035         2.6132 
  79   0.0000       0.097448         2.6517 
  80   0.0000       0.098596         2.6829 
  81   0.0000       0.103346         2.8122 
  82   0.0000       0.108102         2.9416 
  83   0.0000       0.117528         3.1981 
  84   0.0000       0.119931         3.2635 
  85   0.0000       0.135057         3.6751 
  86   0.0000       0.138862         3.7786 
  87   0.0000       0.148908         4.0520 
  88   0.0000       0.151988         4.1358 
  89   0.0000       0.152644         4.1537 
  90   0.0000       0.162286         4.4160 
  91   0.0000       0.177082         4.8186 
  92   0.0000       0.182130         4.9560 
  93   0.0000       0.187108         5.0915 
  94   0.0000       0.189263         5.1501 
  95   0.0000       0.191148         5.2014 
  96   0.0000       0.192279         5.2322 
  97   0.0000       0.210790         5.7359 
  98   0.0000       0.216242         5.8842 
  99   0.0000       0.223023         6.0688 
 100   0.0000       0.238104         6.4791 
 101   0.0000       0.243901         6.6369 
 102   0.0000       0.248716         6.7679 
 103   0.0000       0.249226         6.7818 
 104   0.0000       0.250789         6.8243 
 105   0.0000       0.258018         7.0210 
 106   0.0000       0.268200         7.2981 
 107   0.0000       0.275300         7.4913 
 108   0.0000       0.279669         7.6102 
 109   0.0000       0.290378         7.9016 
 110   0.0000       0.301134         8.1943 
 111   0.0000       0.301254         8.1975 
 112   0.0000       0.302758         8.2385 
 113   0.0000       0.307944         8.3796 
 114   0.0000       0.312585         8.5059 
 115   0.0000       0.314250         8.5512 
 116   0.0000       0.326180         8.8758 
 117   0.0000       0.345843         9.4109 
 118   0.0000       0.346676         9.4335 
 119   0.0000       0.347067         9.4442 
 120   0.0000       0.351383         9.5616 
 121   0.0000       0.372354        10.1323 
 122   0.0000       0.374323        10.1859 
 123   0.0000       0.375966        10.2306 
 124   0.0000       0.381986        10.3944 
 125   0.0000       0.390345        10.6218 
 126   0.0000       0.399499        10.8709 
 127   0.0000       0.412962        11.2373 
 128   0.0000       0.424515        11.5516 
 129   0.0000       0.427879        11.6432 
 130   0.0000       0.438125        11.9220 
 131   0.0000       0.445125        12.1125 
 132   0.0000       0.466460        12.6930 
 133   0.0000       0.469974        12.7886 
 134   0.0000       0.473796        12.8926 
 135   0.0000       0.476882        12.9766 
 136   0.0000       0.491976        13.3874 
 137   0.0000       0.493611        13.4318 
 138   0.0000       0.494020        13.4430 
 139   0.0000       0.506538        13.7836 
 140   0.0000       0.513308        13.9678 
 141   0.0000       0.533066        14.5055 
 142   0.0000       0.535809        14.5801 
 143   0.0000       0.537874        14.6363 
 144   0.0000       0.540062        14.6958 
 145   0.0000       0.548788        14.9333 
 146   0.0000       0.555335        15.1114 
 147   0.0000       0.579463        15.7680 
 148   0.0000       0.586527        15.9602 
 149   0.0000       0.588064        16.0020 
 150   0.0000       0.593031        16.1372 
 151   0.0000       0.606587        16.5061 
 152   0.0000       0.610957        16.6250 
 153   0.0000       0.615669        16.7532 
 154   0.0000       0.629752        17.1364 
 155   0.0000       0.636255        17.3134 
 156   0.0000       0.647249        17.6125 
 157   0.0000       0.657337        17.8870 
 158   0.0000       0.662910        18.0387 
 159   0.0000       0.680755        18.5243 
 160   0.0000       0.687758        18.7149 
 161   0.0000       0.691742        18.8233 
 162   0.0000       0.700892        19.0723 
 163   0.0000       0.718947        19.5635 
 164   0.0000       0.731511        19.9054 
 165   0.0000       0.741133        20.1672 
 166   0.0000       0.743819        20.2403 
 167   0.0000       0.748808        20.3761 
 168   0.0000       0.756320        20.5805 
 169   0.0000       0.799041        21.7430 
 170   0.0000       0.801494        21.8098 
 171   0.0000       0.809378        22.0243 
 172   0.0000       0.818484        22.2721 
 173   0.0000       0.833710        22.6864 
 174   0.0000       0.862021        23.4568 
 175   0.0000       0.874771        23.8037 
 176   0.0000       0.879737        23.9389 
 177   0.0000       0.898462        24.4484 
 178   0.0000       0.898724        24.4555 
 179   0.0000       0.902782        24.5660 
 180   0.0000       0.932333        25.3701 
 181   0.0000       0.933801        25.4100 
 182   0.0000       0.942512        25.6471 
 183   0.0000       0.964891        26.2560 
 184   0.0000       0.966087        26.2886 
 185   0.0000       0.973008        26.4769 
 186   0.0000       0.988116        26.8880 
 187   0.0000       1.011370        27.5208 
 188   0.0000       1.028815        27.9955 
 189   0.0000       1.033517        28.1234 
 190   0.0000       1.041014        28.3274 
 191   0.0000       1.054292        28.6888 
 192   0.0000       1.073703        29.2169 
 193   0.0000       1.074777        29.2462 
 194   0.0000       1.091608        29.7042 
 195   0.0000       1.110207        30.2103 
 196   0.0000       1.134364        30.8676 
 197   0.0000       1.151607        31.3368 
 198   0.0000       1.168902        31.8074 
 199   0.0000       1.178155        32.0592 
 200   0.0000       1.179103        32.0850 
 201   0.0000       1.180585        32.1254 
 202   0.0000       1.219621        33.1876 
 203   0.0000       1.224485        33.3199 
 204   0.0000       1.225498        33.3475 
 205   0.0000       1.231068        33.4991 
 206   0.0000       1.234731        33.5988 
 207   0.0000       1.254379        34.1334 
 208   0.0000       1.258316        34.2405 
 209   0.0000       1.264443        34.4072 
 210   0.0000       1.283943        34.9379 
 211   0.0000       1.288197        35.0536 
 212   0.0000       1.300413        35.3860 
 213   0.0000       1.305747        35.5312 
 214   0.0000       1.311452        35.6864 
 215   0.0000       1.333705        36.2920 
 216   0.0000       1.341718        36.5100 
 217   0.0000       1.350204        36.7409 
 218   0.0000       1.358012        36.9534 
 219   0.0000       1.377509        37.4839 
 220   0.0000       1.385847        37.7108 
 221   0.0000       1.390378        37.8341 
 222   0.0000       1.398293        38.0495 
 223   0.0000       1.409074        38.3429 
 224   0.0000       1.416365        38.5412 
 225   0.0000       1.426390        38.8140 
 226   0.0000       1.435886        39.0724 
 227   0.0000       1.446052        39.3491 
 228   0.0000       1.451180        39.4886 
 229   0.0000       1.452010        39.5112 
 230   0.0000       1.475254        40.1437 
 231   0.0000       1.489524        40.5320 
 232   0.0000       1.490359        40.5547 
 233   0.0000       1.501270        40.8516 
 234   0.0000       1.514363        41.2079 
 235   0.0000       1.519371        41.3442 
 236   0.0000       1.523873        41.4667 
 237   0.0000       1.532099        41.6905 
 238   0.0000       1.566251        42.6198 
 239   0.0000       1.567527        42.6546 
 240   0.0000       1.569881        42.7186 
 241   0.0000       1.587388        43.1950 
 242   0.0000       1.591441        43.3053 
 243   0.0000       1.601125        43.5688 
 244   0.0000       1.609202        43.7886 
 245   0.0000       1.613782        43.9132 
 246   0.0000       1.627064        44.2746 
 247   0.0000       1.632509        44.4228 
 248   0.0000       1.651875        44.9498 
 249   0.0000       1.687433        45.9174 
 250   0.0000       1.692175        46.0464 
 251   0.0000       1.693085        46.0712 
 252   0.0000       1.709494        46.5177 
 253   0.0000       1.723276        46.8927 
 254   0.0000       1.760198        47.8974 
 255   0.0000       1.767371        48.0926 
 256   0.0000       1.783313        48.5264 
 257   0.0000       1.788283        48.6617 
 258   0.0000       1.803949        49.0879 
 259   0.0000       1.822962        49.6053 
 260   0.0000       1.832037        49.8523 
 261   0.0000       1.847230        50.2657 
 262   0.0000       1.879731        51.1501 
 263   0.0000       1.886026        51.3214 
 264   0.0000       1.898945        51.6729 
 265   0.0000       1.918878        52.2153 
 266   0.0000       1.935245        52.6607 
 267   0.0000       1.936950        52.7071 
 268   0.0000       1.939218        52.7688 
 269   0.0000       1.961833        53.3842 
 270   0.0000       1.971305        53.6419 
 271   0.0000       1.988691        54.1150 
 272   0.0000       1.990332        54.1597 
 273   0.0000       1.997701        54.3602 
 274   0.0000       2.000148        54.4268 
 275   0.0000       2.025992        55.1300 
 276   0.0000       2.037502        55.4432 
 277   0.0000       2.042678        55.5841 
 278   0.0000       2.075513        56.4776 
 279   0.0000       2.091504        56.9127 
 280   0.0000       2.127146        57.8826 
 281   0.0000       2.130321        57.9690 
 282   0.0000       2.146697        58.4146 
 283   0.0000       2.147846        58.4459 
 284   0.0000       2.159167        58.7539 
 285   0.0000       2.169038        59.0225 
 286   0.0000       2.178558        59.2816 
 287   0.0000       2.204576        59.9896 
 288   0.0000       2.220326        60.4181 
 289   0.0000       2.228868        60.6506 
 290   0.0000       2.229097        60.6568 
 291   0.0000       2.247216        61.1498 
 292   0.0000       2.254766        61.3553 
 293   0.0000       2.278784        62.0089 
 294   0.0000       2.288804        62.2815 
 295   0.0000       2.299715        62.5784 
 296   0.0000       2.321605        63.1741 
 297   0.0000       2.354859        64.0790 
 298   0.0000       2.361468        64.2588 
 299   0.0000       2.377344        64.6908 
 300   0.0000       2.392451        65.1019 
 301   0.0000       2.395015        65.1717 
 302   0.0000       2.399719        65.2997 
 303   0.0000       2.401730        65.3544 
 304   0.0000       2.404211        65.4219 
 305   0.0000       2.431360        66.1607 
 306   0.0000       2.434094        66.2351 
 307   0.0000       2.446003        66.5591 
 308   0.0000       2.472131        67.2701 
 309   0.0000       2.488993        67.7289 
 310   0.0000       2.490476        67.7693 
 311   0.0000       2.493824        67.8604 
 312   0.0000       2.503761        68.1308 
 313   0.0000       2.520327        68.5816 
 314   0.0000       2.529327        68.8265 
 315   0.0000       2.557330        69.5885 
 316   0.0000       2.577663        70.1418 
 317   0.0000       2.577867        70.1473 
 318   0.0000       2.580056        70.2069 
 319   0.0000       2.583315        70.2956 
 320   0.0000       2.606729        70.9327 
 321   0.0000       2.612695        71.0951 
 322   0.0000       2.616649        71.2026 
 323   0.0000       2.629721        71.5584 
 324   0.0000       2.635388        71.7126 
 325   0.0000       2.651816        72.1596 
 326   0.0000       2.653425        72.2034 
 327   0.0000       2.656907        72.2981 
 328   0.0000       2.676579        72.8334 
 329   0.0000       2.692508        73.2669 
 330   0.0000       2.697957        73.4151 
 331   0.0000       2.699493        73.4570 
 332   0.0000       2.730864        74.3106 
 333   0.0000       2.739352        74.5416 
 334   0.0000       2.755909        74.9921 
[...]
   Time for densities:            0.051
   Time for XC-Integration:       2.221
   Time for K (COSX):             3.941
   Time for RI-J (Direct):        2.864
   Time for Sigma-Completion:     0.247
   Size of expansion space: 150
   Lowest Energy          :     0.071993009996
   Maximum Energy change  :     0.000000425195 (vector 7)
   Maximum residual norm  :     0.000000531128

                       ****Iteration   13****
   Time for densities:            0.049
   Time for XC-Integration:       4.478
   Time for K (COSX):             3.902
   Time for RI-J (Direct):        2.837
   Time for Sigma-Completion:     0.226
   Size of expansion space: 160
   Lowest Energy          :     0.071993009995
   Maximum Energy change  :     0.000000189072 (vector 7)

         *** CONVERGENCE OF ENERGIES REACHED ***

Storing the converged CI vectors               ... TDDFT.cis2

                 *** DAVIDSON DONE ***

Total time for solving the RPA problem:   200.279sec

---------------------
TD-DFT EXCITED STATES
---------------------

the weight of the individual excitations are printed if larger than 0.01

STATE  1:  E=   0.071993 au      1.959 eV    15800.6 cm**-1 <S**2> =   0.800107
    49a ->  50a  :     0.013945 
    49a ->  51a  :     0.972604 

STATE  2:  E=   0.088016 au      2.395 eV    19317.3 cm**-1 <S**2> =   0.778503
    49a ->  50a  :     0.867839 
    49a ->  51a  :     0.012537 
    48b ->  49b  :     0.107432 

STATE  3:  E=   0.094245 au      2.565 eV    20684.3 cm**-1 <S**2> =   0.823570
    49a ->  52a  :     0.974781 

STATE  4:  E=   0.133151 au      3.623 eV    29223.3 cm**-1 <S**2> =   1.002995
    49a ->  50a  :     0.079168 
    45b ->  51b  :     0.010146 
    46b ->  52b  :     0.021771 
    47b ->  50b  :     0.049650 
    48b ->  49b  :     0.796972 

STATE  5:  E=   0.147096 au      4.003 eV    32283.8 cm**-1 <S**2> =   0.851660
    46a ->  50a  :     0.028144 
    46b ->  51b  :     0.015291 
    47b ->  49b  :     0.927964 
    48b ->  50b  :     0.010991 

STATE  6:  E=   0.151725 au      4.129 eV    33299.9 cm**-1 <S**2> =   0.884482
    47a ->  50a  :     0.041325 
    46b ->  49b  :     0.912803 
    47b ->  51b  :     0.019278 

STATE  7:  E=   0.160411 au      4.365 eV    35206.1 cm**-1 <S**2> =   2.279128
    46a ->  51a  :     0.146986 
    47a ->  52a  :     0.099026 
    49a ->  53a  :     0.012245 
    49a ->  55a  :     0.014968 
    49a ->  56a  :     0.216984 
    46b ->  50b  :     0.273004 
    47b ->  52b  :     0.172398 
    48b ->  51b  :     0.024540 

STATE  8:  E=   0.167976 au      4.571 eV    36866.4 cm**-1 <S**2> =   2.604098
    46a ->  52a  :     0.127509 
    47a ->  51a  :     0.282323 
    49a ->  50a  :     0.023292 
    46b ->  52b  :     0.144756 
    47b ->  50b  :     0.311326 
    48b ->  49b  :     0.063247 

STATE  9:  E=   0.168426 au      4.583 eV    36965.3 cm**-1 <S**2> =   1.778965
    46a ->  51a  :     0.033582 
    47a ->  52a  :     0.023657 
    48a ->  50a  :     0.231587 
    49a ->  53a  :     0.074512 
    49a ->  55a  :     0.011490 
    49a ->  56a  :     0.075553 
    45b ->  49b  :     0.326381 
    46b ->  50b  :     0.038756 
    47b ->  52b  :     0.022629 
    48b ->  51b  :     0.133150 

STATE 10:  E=   0.170053 au      4.627 eV    37322.4 cm**-1 <S**2> =   0.838887
    48a ->  50a  :     0.023639 
    49a ->  53a  :     0.882336 
    49a ->  55a  :     0.011628 
    49a ->  56a  :     0.035926 
    45b ->  49b  :     0.025763 
    48b ->  51b  :     0.013570 


------------------------------------------
NATURAL TRANSITION ORBITALS FOR STATE    1
------------------------------------------

Making the (pseudo)densities                       ... done
Solving eigenvalue problem for the occupied space  ... done
Solving eigenvalue problem for the virtual space   ... done
Making the (pseudo)densities                       ... done
Solving eigenvalue problem for the occupied space  ... done
Solving eigenvalue problem for the virtual space   ... done
Natural Transition Orbitals were saved in TDDFT.s1.nto
Threshold for printing occupation numbers 0.001000

 E=   0.071993 au      1.959 eV    15800.6 cm**-1
    49a ->  50a  : n=  0.98796413
    48a ->  51a  : n=  0.00401595
    47a ->  52a  : n=  0.00187121
    46a ->  53a  : n=  0.00136270
    48b ->  49b  : n=  0.00475629
    47b ->  50b  : n=  0.00417057
    46b ->  51b  : n=  0.00318436
    45b ->  52b  : n=  0.00178686


------------------------------------------
NATURAL TRANSITION ORBITALS FOR STATE    2
------------------------------------------

Making the (pseudo)densities                       ... done
Solving eigenvalue problem for the occupied space  ... done
Solving eigenvalue problem for the virtual space   ... done
Making the (pseudo)densities                       ... done
Solving eigenvalue problem for the occupied space  ... done
Solving eigenvalue problem for the virtual space   ... done
Natural Transition Orbitals were saved in TDDFT.s2.nto
Threshold for printing occupation numbers 0.001000

 E=   0.088016 au      2.395 eV    19317.3 cm**-1
    49a ->  50a  : n=  0.88314863
    48a ->  51a  : n=  0.00194432
    47a ->  52a  : n=  0.00101955
    48b ->  49b  : n=  0.11688031
    47b ->  50b  : n=  0.00688207
    46b ->  51b  : n=  0.00284607
    45b ->  52b  : n=  0.00163096
    44b ->  53b  : n=  0.00119421


------------------------------------------
NATURAL TRANSITION ORBITALS FOR STATE    3
------------------------------------------

Making the (pseudo)densities                       ... done
Solving eigenvalue problem for the occupied space  ... done
Solving eigenvalue problem for the virtual space   ... done
Making the (pseudo)densities                       ... done
Solving eigenvalue problem for the occupied space  ... done
Solving eigenvalue problem for the virtual space   ... done
Natural Transition Orbitals were saved in TDDFT.s3.nto
Threshold for printing occupation numbers 0.001000

 E=   0.094245 au      2.565 eV    20684.3 cm**-1
    49a ->  50a  : n=  0.97616501
    48a ->  51a  : n=  0.00807728
    47a ->  52a  : n=  0.00268120
    46a ->  53a  : n=  0.00164576
    48b ->  49b  : n=  0.00913314
    47b ->  50b  : n=  0.00459577
    46b ->  51b  : n=  0.00399475
    45b ->  52b  : n=  0.00233017


------------------------------------------
NATURAL TRANSITION ORBITALS FOR STATE    4
------------------------------------------

Making the (pseudo)densities                       ... done
Solving eigenvalue problem for the occupied space  ... done
Solving eigenvalue problem for the virtual space   ... done
Making the (pseudo)densities                       ... done
Solving eigenvalue problem for the occupied space  ... done
Solving eigenvalue problem for the virtual space   ... done
Natural Transition Orbitals were saved in TDDFT.s4.nto
Threshold for printing occupation numbers 0.001000

 E=   0.133151 au      3.623 eV    29223.3 cm**-1
    49a ->  50a  : n=  0.09940426
    48a ->  51a  : n=  0.00942503
    47a ->  52a  : n=  0.00833314
    46a ->  53a  : n=  0.00436173
    45a ->  54a  : n=  0.00415896
    44a ->  55a  : n=  0.00214405
    43a ->  56a  : n=  0.00192779
    42a ->  57a  : n=  0.00117350
    48b ->  49b  : n=  0.79984918
    47b ->  50b  : n=  0.05533651
    46b ->  51b  : n=  0.02612672
    45b ->  52b  : n=  0.01250152
    44b ->  53b  : n=  0.00181379
    43b ->  54b  : n=  0.00133421


------------------------------------------
NATURAL TRANSITION ORBITALS FOR STATE    5
------------------------------------------

Making the (pseudo)densities                       ... done
Solving eigenvalue problem for the occupied space  ... done
Solving eigenvalue problem for the virtual space   ... done
Making the (pseudo)densities                       ... done
Solving eigenvalue problem for the occupied space  ... done
Solving eigenvalue problem for the virtual space   ... done
Natural Transition Orbitals were saved in TDDFT.s5.nto
Threshold for printing occupation numbers 0.001000

 E=   0.147096 au      4.003 eV    32283.8 cm**-1
    49a ->  50a  : n=  0.03125103
    48a ->  51a  : n=  0.01061562
    47a ->  52a  : n=  0.00312872
    46a ->  53a  : n=  0.00136550
    48b ->  49b  : n=  0.92808599
    47b ->  50b  : n=  0.01546910
    46b ->  51b  : n=  0.01204459
    45b ->  52b  : n=  0.00150971


------------------------------------------
NATURAL TRANSITION ORBITALS FOR STATE    6
------------------------------------------

Making the (pseudo)densities                       ... done
Solving eigenvalue problem for the occupied space  ... done
Solving eigenvalue problem for the virtual space   ... done
Making the (pseudo)densities                       ... done
Solving eigenvalue problem for the occupied space  ... done
Solving eigenvalue problem for the virtual space   ... done
Natural Transition Orbitals were saved in TDDFT.s6.nto
Threshold for printing occupation numbers 0.001000

 E=   0.151725 au      4.129 eV    33299.9 cm**-1
    49a ->  50a  : n=  0.04492219
    48a ->  51a  : n=  0.01013368
    47a ->  52a  : n=  0.00494246
    46a ->  53a  : n=  0.00112172
    48b ->  49b  : n=  0.91296509
    47b ->  50b  : n=  0.01946970
    46b ->  51b  : n=  0.00785842
    45b ->  52b  : n=  0.00228947


------------------------------------------
NATURAL TRANSITION ORBITALS FOR STATE    7
------------------------------------------

Making the (pseudo)densities                       ... done
Solving eigenvalue problem for the occupied space  ... done
Solving eigenvalue problem for the virtual space   ... done
Making the (pseudo)densities                       ... done
Solving eigenvalue problem for the occupied space  ... done
Solving eigenvalue problem for the virtual space   ... done
Natural Transition Orbitals were saved in TDDFT.s7.nto
Threshold for printing occupation numbers 0.001000

 E=   0.160411 au      4.365 eV    35206.1 cm**-1
    49a ->  50a  : n=  0.25542066
    48a ->  51a  : n=  0.15458950
    47a ->  52a  : n=  0.10428604
    46a ->  53a  : n=  0.01540035
    48b ->  49b  : n=  0.28224684
    47b ->  50b  : n=  0.18099850
    46b ->  51b  : n=  0.03004427
    45b ->  52b  : n=  0.00323535
    44b ->  53b  : n=  0.00159033


------------------------------------------
NATURAL TRANSITION ORBITALS FOR STATE    8
------------------------------------------

Making the (pseudo)densities                       ... done
Solving eigenvalue problem for the occupied space  ... done
Solving eigenvalue problem for the virtual space   ... done
Making the (pseudo)densities                       ... done
Solving eigenvalue problem for the occupied space  ... done
Solving eigenvalue problem for the virtual space   ... done
Natural Transition Orbitals were saved in TDDFT.s8.nto
Threshold for printing occupation numbers 0.001000

 E=   0.167976 au      4.571 eV    36866.4 cm**-1
    49a ->  50a  : n=  0.29392324
    48a ->  51a  : n=  0.13405311
    47a ->  52a  : n=  0.04549141
    46a ->  53a  : n=  0.00763026
    45a ->  54a  : n=  0.00415604
    48b ->  49b  : n=  0.31744881
    47b ->  50b  : n=  0.15033255
    46b ->  51b  : n=  0.07203067
    45b ->  52b  : n=  0.00462191
    44b ->  53b  : n=  0.00263684


------------------------------------------
NATURAL TRANSITION ORBITALS FOR STATE    9
------------------------------------------

Making the (pseudo)densities                       ... done
Solving eigenvalue problem for the occupied space  ... done
Solving eigenvalue problem for the virtual space   ... done
Making the (pseudo)densities                       ... done
Solving eigenvalue problem for the occupied space  ... done
Solving eigenvalue problem for the virtual space   ... done
Natural Transition Orbitals were saved in TDDFT.s9.nto
Threshold for printing occupation numbers 0.001000

 E=   0.168426 au      4.583 eV    36965.3 cm**-1
    49a ->  50a  : n=  0.24269581
    48a ->  51a  : n=  0.16719633
    47a ->  52a  : n=  0.03588960
    46a ->  53a  : n=  0.02551781
    45a ->  54a  : n=  0.00255692
    44a ->  55a  : n=  0.00203797
    48b ->  49b  : n=  0.33322051
    47b ->  50b  : n=  0.13928304
    46b ->  51b  : n=  0.04017428
    45b ->  52b  : n=  0.02390984
    44b ->  53b  : n=  0.00274834
    43b ->  54b  : n=  0.00161739


------------------------------------------
NATURAL TRANSITION ORBITALS FOR STATE   10
------------------------------------------

Making the (pseudo)densities                       ... done
Solving eigenvalue problem for the occupied space  ... done
Solving eigenvalue problem for the virtual space   ... done
Making the (pseudo)densities                       ... done
Solving eigenvalue problem for the occupied space  ... done
Solving eigenvalue problem for the virtual space   ... done
Natural Transition Orbitals were saved in TDDFT.s10.nto
Threshold for printing occupation numbers 0.001000

 E=   0.170053 au      4.627 eV    37322.4 cm**-1
    49a ->  50a  : n=  0.93191025
    48a ->  51a  : n=  0.02623253
    47a ->  52a  : n=  0.00112376
    48b ->  49b  : n=  0.02634167
    47b ->  50b  : n=  0.01400491


-------------------------
TD-DFT-EXCITATION SPECTRA
-------------------------

Center of mass = ( -0.0482,  0.0146,  8.7071)
Calculating the Dipole integrals                  ... done
Transforming integrals                            ... done
Calculating the Linear Momentum integrals         ... done
Transforming integrals                            ... done
Calculating angular momentum integrals            ... done
Transforming integrals                            ... done

-----------------------------------------------------------------------------
         ABSORPTION SPECTRUM VIA TRANSITION ELECTRIC DIPOLE MOMENTS
-----------------------------------------------------------------------------
State   Energy    Wavelength  fosc         T2        TX        TY        TZ  
        (cm-1)      (nm)                 (au**2)    (au)      (au)      (au) 
-----------------------------------------------------------------------------
   1   15800.6    632.9   0.000009618   0.00020  -0.00010  -0.00728   0.01214
   2   19317.3    517.7   0.210995583   3.59586  -0.01265  -0.00321   1.89623
   3   20684.3    483.5   0.000000477   0.00001  -0.00058   0.00001  -0.00269
   4   29223.3    342.2   0.560072386   6.30943  -0.01663  -0.00027   2.51180
   5   32283.8    309.8   0.000002717   0.00003   0.00499  -0.00008  -0.00169
   6   33299.9    300.3   0.043730470   0.43233   0.00012  -0.65745   0.00924
   7   35206.1    284.0   0.000002369   0.00002   0.00469  -0.00044   0.00009
   8   36866.4    271.2   0.083913869   0.74934   0.00596  -0.00039  -0.86562
   9   36965.3    270.5   0.000230189   0.00205  -0.04526   0.00023  -0.00138
  10   37322.4    267.9   0.003600970   0.03176   0.17821   0.00010   0.00185

-----------------------------------------------------------------------------
         ABSORPTION SPECTRUM VIA TRANSITION VELOCITY DIPOLE MOMENTS
-----------------------------------------------------------------------------
State   Energy    Wavelength   fosc        P2         PX        PY        PZ  
        (cm-1)      (nm)                 (au**2)     (au)      (au)      (au) 
-----------------------------------------------------------------------------
   1   15800.6    632.9   0.000068694   0.00001   0.00001   0.00256  -0.00092
   2   19317.3    517.7   0.214030616   0.02826   0.00112   0.00025  -0.16809
   3   20684.3    483.5   0.000000475   0.00000   0.00007  -0.00000   0.00025
   4   29223.3    342.2   0.561689709   0.11218   0.00222   0.00002  -0.33493
   5   32283.8    309.8   0.000002622   0.00000  -0.00072   0.00001   0.00025
   6   33299.9    300.3   0.043119480   0.00981  -0.00002   0.09905  -0.00141
   7   35206.1    284.0   0.000001233   0.00000  -0.00054   0.00007  -0.00001
   8   36866.4    271.2   0.084867415   0.02138  -0.00101   0.00007   0.14623
   9   36965.3    270.5   0.000224485   0.00006   0.00753  -0.00004   0.00023
  10   37322.4    267.9   0.003193915   0.00081  -0.02854  -0.00002  -0.00031

-------------------------------------------------------------------
                             CD SPECTRUM
-------------------------------------------------------------------
State  Energy     Wavelength     R         MX        MY        MZ   
       (cm-1)       (nm)     (1e40*cgs)   (au)      (au)      (au)  
-------------------------------------------------------------------
   1   15800.6    632.9     -0.09277   0.00009   0.00463  -0.01343
   2   19317.3    517.7      0.45655  -0.00100   0.00643   0.00051
   3   20684.3    483.5      0.19738  -0.69713  -0.00024  -0.00455
   4   29223.3    342.2      1.21422   0.00005   0.01885   0.00103
   5   32283.8    309.8     -0.47466  -0.20239  -0.00007  -0.00132
   6   33299.9    300.3      0.26948   0.00001  -0.00083   0.00298
   7   35206.1    284.0      0.00392   0.00177   0.00002   0.00002
   8   36866.4    271.2      0.22113  -0.00010  -0.00633  -0.00054
   9   36965.3    270.5      0.00101  -0.00005  -0.00002   0.00001
  10   37322.4    267.9      0.16315   0.00194   0.00001  -0.00004

Total run time:      203.750 sec

           *** ORCA-CIS/TD-DFT FINISHED WITHOUT ERROR ***

Maximum memory used throughout the entire CIS-calculation: 737.5 MB

-----------------------
CIS/TD-DFT TOTAL ENERGY
-----------------------

    E(SCF)  =   -574.829588728 Eh
    DE(CIS) =      0.071993010 Eh (Root  1)
    ----------------------------- ---------
    E(tot)  =   -574.757595718 Eh


-------------------------   --------------------
FINAL SINGLE POINT ENERGY      -574.757595717886
-------------------------   --------------------


                            ***************************************
                            *     ORCA property calculations      *
                            ***************************************

                                    ---------------------
                                    Active property flags
                                    ---------------------
   (+) Dipole Moment


------------------------------------------------------------------------------
                       ORCA ELECTRIC PROPERTIES CALCULATION
------------------------------------------------------------------------------

Dipole Moment Calculation                       ... on
Quadrupole Moment Calculation                   ... off
Polarizability Calculation                      ... off
GBWName                                         ... TDDFT.gbw
Electron density                                ... TDDFT.scfp
The origin for moment calculation is the CENTER OF MASS  = (-0.048193,  0.014591  8.707093)

-------------
DIPOLE MOMENT
-------------
                                X             Y             Z
Electronic contribution:     -0.22260       0.00049      -0.00141
Nuclear contribution   :      0.25281      -0.00054       0.00165
                        -----------------------------------------
Total Dipole Moment    :      0.03020      -0.00005       0.00025
                        -----------------------------------------
Magnitude (a.u.)       :      0.03020
Magnitude (Debye)      :      0.07677



--------------------
Rotational spectrum 
--------------------
 
Rotational constants in cm-1:     0.094566     0.009960     0.009043 
Rotational constants in MHz :  2835.026110   298.607182   271.107597 

 Dipole components along the rotational axes: 
x,y,z [a.u.] :     0.000048    -0.000056    -0.030204 
x,y,z [Debye]:     0.000122    -0.000142    -0.076771 

 

Timings for individual modules:

Sum of individual times         ...      323.209 sec (=   5.387 min)
GTO integral calculation        ...        3.479 sec (=   0.058 min)   1.1 %
SCF iterations                  ...      112.972 sec (=   1.883 min)  35.0 %
CIS module                      ...      206.758 sec (=   3.446 min)  64.0 %
                             ****ORCA TERMINATED NORMALLY****
TOTAL RUN TIME: 0 days 0 hours 5 minutes 44 seconds 897 msec
Thu Oct 27 05:01:09 CDT 2022
